Program Version,EnergyPlus, Version 9.6.0-f420c06a69, YMD=2024.06.07 15:33
1,5,Environment Title[],Latitude[deg],Longitude[deg],Time Zone[],Elevation[m]
2,8,Day of Simulation[],Month[],Day of Month[],DST Indicator[1=yes 0=no],Hour[],StartMinute[],EndMinute[],DayType
3,5,Cumulative Day of Simulation[],Month[],Day of Month[],DST Indicator[1=yes 0=no],DayType  ! When Daily Report Variables Requested
4,2,Cumulative Days of Simulation[],Month[]  ! When Monthly Report Variables Requested
5,1,Cumulative Days of Simulation[] ! When Run Period Report Variables Requested
6,1,Calendar Year of Simulation[] ! When Annual Report Variables Requested
7,1,Environment,Site Outdoor Air Drybulb Temperature [C] !TimeStep
8,1,Environment,Site Direct Solar Radiation Rate per Area [W/m2] !TimeStep
59,1,LIVING_UNIT1,Space People Occupant Count [] !TimeStep
685,1,LIVING_UNIT1,Zone Air System Sensible Heating Rate [W] !TimeStep
686,1,LIVING_UNIT1,Zone Air System Sensible Cooling Rate [W] !TimeStep
687,1,LIVING_UNIT1,Zone Air Temperature [C] !TimeStep
750,1,ATTIC_UNIT1,Zone Air System Sensible Heating Rate [W] !TimeStep
751,1,ATTIC_UNIT1,Zone Air System Sensible Cooling Rate [W] !TimeStep
752,1,ATTIC_UNIT1,Zone Air Temperature [C] !TimeStep
815,1,CRAWLSPACE_UNIT1,Zone Air System Sensible Heating Rate [W] !TimeStep
816,1,CRAWLSPACE_UNIT1,Zone Air System Sensible Cooling Rate [W] !TimeStep
817,1,CRAWLSPACE_UNIT1,Zone Air Temperature [C] !TimeStep
End of Data Dictionary
1,DENVER-AURORA-BUCKLEY.AFB_CO_USA ANN HTG 99.6% CONDNS DB,  39.72,-104.75,  -7.00,1726.00
2,1,12,21, 0, 1, 0.00,15.00,WinterDesignDay
7,-17.9
8,0.0
59,3.0
685,870.7051276593603
686,0.0
687,-6.428411616425896e-17
750,0.0
751,0.0
752,-22.042140398629765
815,0.0
816,0.0
817,13.714088101087729
2,1,12,21, 0, 1,15.00,30.00,WinterDesignDay
7,-17.9
8,0.0
59,3.0
685,0.0
686,0.0
687,-0.5152971254506862
750,0.0
751,0.0
752,-22.041899432348785
815,0.0
816,0.0
817,13.714250260572097
2,1,12,21, 0, 1,30.00,45.00,WinterDesignDay
7,-17.9
8,0.0
59,3.0
685,0.0
686,0.0
687,-1.0874056138535941
750,0.0
751,0.0
752,-22.041538056100016
815,0.0
816,0.0
817,13.714437226329807
2,1,12,21, 0, 1,45.00,60.00,WinterDesignDay
7,-17.9
8,0.0
59,3.0
685,0.0
686,0.0
687,-1.3115476433161586
750,0.0
751,0.0
752,-22.04132445622956
815,0.0
816,0.0
817,13.714443185075304
2,1,12,21, 0, 2, 0.00,15.00,WinterDesignDay
7,-17.9
8,0.0
59,3.0
685,0.0
686,0.0
687,-1.4434074813505628
750,0.0
751,0.0
752,-22.04117038288247
815,0.0
816,0.0
817,13.714339321055908
2,1,12,21, 0, 2,15.00,30.00,WinterDesignDay
7,-17.9
8,0.0
59,3.0
685,0.0
686,0.0
687,-1.5825492161329535
750,0.0
751,0.0
752,-22.04107639139809
815,0.0
816,0.0
817,13.714111709576551
2,1,12,21, 0, 2,30.00,45.00,WinterDesignDay
7,-17.9
8,0.0
59,3.0
685,0.0
686,0.0
687,-1.7291769223168898
750,0.0
751,0.0
752,-22.04106815551356
815,0.0
816,0.0
817,13.713728036508705
2,1,12,21, 0, 2,45.00,60.00,WinterDesignDay
7,-17.9
8,0.0
59,3.0
685,0.0
686,0.0
687,-1.8669918527917735
750,0.0
751,0.0
752,-22.041160409059984
815,0.0
816,0.0
817,13.713150221327068
2,1,12,21, 0, 3, 0.00,15.00,WinterDesignDay
7,-17.9
8,0.0
59,3.0
685,0.0
686,0.0
687,-1.9930171450965322
750,0.0
751,0.0
752,-22.041372215640664
815,0.0
816,0.0
817,13.712340540093935
2,1,12,21, 0, 3,15.00,30.00,WinterDesignDay
7,-17.9
8,0.0
59,3.0
685,0.0
686,0.0
687,-2.1109410323237805
750,0.0
751,0.0
752,-22.04172851049984
815,0.0
816,0.0
817,13.71126730938764
2,1,12,21, 0, 3,30.00,45.00,WinterDesignDay
7,-17.9
8,0.0
59,3.0
685,0.0
686,0.0
687,-2.2242586482602054
750,0.0
751,0.0
752,-22.04225404156192
815,0.0
816,0.0
817,13.709908224661374
2,1,12,21, 0, 3,45.00,60.00,WinterDesignDay
7,-17.9
8,0.0
59,3.0
685,0.0
686,0.0
687,-2.3343531678645526
750,0.0
751,0.0
752,-22.04296954232777
815,0.0
816,0.0
817,13.708250562538975
2,1,12,21, 0, 4, 0.00,15.00,WinterDesignDay
7,-17.9
8,0.0
59,3.0
685,0.0
686,0.0
687,-2.4424722322231602
750,0.0
751,0.0
752,-22.04389081693685
815,0.0
816,0.0
817,13.706290076773081
2,1,12,21, 0, 4,15.00,30.00,WinterDesignDay
7,-17.9
8,0.0
59,3.0
685,0.0
686,0.0
687,-2.547996808880348
750,0.0
751,0.0
752,-22.04502868283485
815,0.0
816,0.0
817,13.704029778777644
2,1,12,21, 0, 4,30.00,45.00,WinterDesignDay
7,-17.9
8,0.0
59,3.0
685,0.0
686,0.0
687,-2.6503950730609622
750,0.0
751,0.0
752,-22.046389056709454
815,0.0
816,0.0
817,13.70147863688878
2,1,12,21, 0, 4,45.00,60.00,WinterDesignDay
7,-17.9
8,0.0
59,3.0
685,0.0
686,0.0
687,-2.7497984779722575
750,0.0
751,0.0
752,-22.04797329192783
815,0.0
816,0.0
817,13.698650136832585
2,1,12,21, 0, 5, 0.00,15.00,WinterDesignDay
7,-17.9
8,0.0
59,3.0
685,0.0
686,0.0
687,-2.839567416061737
750,0.0
751,0.0
752,-22.049778771146034
815,0.0
816,0.0
817,13.695560956292631
2,1,12,21, 0, 5,15.00,30.00,WinterDesignDay
7,-17.9
8,0.0
59,3.0
685,0.0
686,0.0
687,-2.925017139970411
750,0.0
751,0.0
752,-22.0517995976632
815,0.0
816,0.0
817,13.69222993625811
2,1,12,21, 0, 5,30.00,45.00,WinterDesignDay
7,-17.9
8,0.0
59,3.0
685,0.0
686,0.0
687,-3.0103074290109326
750,0.0
751,0.0
752,-22.054027240327436
815,0.0
816,0.0
817,13.688677490983045
2,1,12,21, 0, 5,45.00,60.00,WinterDesignDay
7,-17.9
8,0.0
59,3.0
685,0.0
686,0.0
687,-3.095680719442317
750,0.0
751,0.0
752,-22.056451057113172
815,0.0
816,0.0
817,13.684925347576181
2,1,12,21, 0, 6, 0.00,15.00,WinterDesignDay
7,-17.9
8,0.0
59,3.0
685,0.0
686,0.0
687,-3.15851546782872
750,0.0
751,0.0
752,-22.059036864128597
815,0.0
816,0.0
817,13.681096579193207
2,1,12,21, 0, 6,15.00,30.00,WinterDesignDay
7,-17.9
8,0.0
59,3.0
685,0.0
686,0.0
687,-3.212699700121054
750,0.0
751,0.0
752,-22.061788447944913
815,0.0
816,0.0
817,13.677119326729413
2,1,12,21, 0, 6,30.00,45.00,WinterDesignDay
7,-17.9
8,0.0
59,3.0
685,0.0
686,0.0
687,-3.270662114613909
750,0.0
751,0.0
752,-22.064704575020123
815,0.0
816,0.0
817,13.672959761827753
2,1,12,21, 0, 6,45.00,60.00,WinterDesignDay
7,-17.9
8,0.0
59,3.0
685,0.0
686,0.0
687,-3.3334382420069635
750,0.0
751,0.0
752,-22.067766743390877
815,0.0
816,0.0
817,13.66866651356699
2,1,12,21, 0, 7, 0.00,15.00,WinterDesignDay
7,-17.9
8,0.0
59,3.0
685,0.0
686,0.0
687,-3.382464679950809
750,0.0
751,0.0
752,-22.070954934457866
815,0.0
816,0.0
817,13.664284907747783
2,1,12,21, 0, 7,15.00,30.00,WinterDesignDay
7,-17.9
8,0.0
59,3.0
685,0.0
686,0.0
687,-3.4249114779895806
750,0.0
751,0.0
752,-22.074252111390607
815,0.0
816,0.0
817,13.659841687579819
2,1,12,21, 0, 7,30.00,45.00,WinterDesignDay
7,-17.9
8,0.0
59,3.0
685,0.0
686,0.0
687,-3.469539056024397
750,0.0
751,0.0
752,-22.07764197182853
815,0.0
816,0.0
817,13.655358925134212
2,1,12,21, 0, 7,45.00,60.00,WinterDesignDay
7,-17.9
8,0.0
59,3.0
685,0.0
686,0.0
687,-3.5175522226766227
750,0.0
751,0.0
752,-22.081107768544992
815,0.0
816,0.0
817,13.650859403652019
2,1,12,21, 0, 8, 0.00,15.00,WinterDesignDay
7,-17.9
8,0.0
59,2.6493
685,0.0
686,0.0
687,-3.587004015124625
750,0.0
751,0.0
752,-22.08463270228095
815,0.0
816,0.0
817,13.646365145373203
2,1,12,21, 0, 8,15.00,30.00,WinterDesignDay
7,-17.9
8,0.0
59,2.6493
685,0.0
686,0.0
687,-3.653763342652689
750,0.0
751,0.0
752,-22.088200495671973
815,0.0
816,0.0
817,13.641895683301343
2,1,12,21, 0, 8,30.00,45.00,WinterDesignDay
7,-17.9
8,0.0
59,2.6493
685,0.0
686,0.0
687,-3.7086171488875785
750,0.0
751,0.0
752,-22.091795739392445
815,0.0
816,0.0
817,13.637467661050415
2,1,12,21, 0, 8,45.00,60.00,WinterDesignDay
7,-17.9
8,0.0
59,2.6493
685,0.0
686,0.0
687,-3.756125242682682
750,0.0
751,0.0
752,-22.095404109448566
815,0.0
816,0.0
817,13.633095059581818
2,1,12,21, 0, 9, 0.00,15.00,WinterDesignDay
7,-17.9
8,0.0
59,1.22583
685,0.0
686,0.0
687,-3.9260540974944087
750,0.0
751,0.0
752,-22.099012590758168
815,0.0
816,0.0
817,13.628788996044404
2,1,12,21, 0, 9,15.00,30.00,WinterDesignDay
7,-17.9
8,0.0
59,1.22583
685,0.0
686,0.0
687,-4.10603795318065
750,0.0
751,0.0
752,-22.102639918786938
815,0.0
816,0.0
817,13.624448702158478
2,1,12,21, 0, 9,30.00,45.00,WinterDesignDay
7,-17.9
8,0.0
59,1.22583
685,0.0
686,0.0
687,-4.235495244777335
750,0.0
751,0.0
752,-22.106250500048485
815,0.0
816,0.0
817,13.6201864788487
2,1,12,21, 0, 9,45.00,60.00,WinterDesignDay
7,-17.9
8,0.0
59,1.22583
685,0.0
686,0.0
687,-4.324632758673711
750,0.0
751,0.0
752,-22.109818938427107
815,0.0
816,0.0
817,13.616060544905402
2,1,12,21, 0,10, 0.00,15.00,WinterDesignDay
7,-17.9
8,0.0
59,0.72567
685,0.0
686,0.0
687,-4.448045358437494
750,0.0
751,0.0
752,-22.113346833577637
815,0.0
816,0.0
817,13.61203163675291
2,1,12,21, 0,10,15.00,30.00,WinterDesignDay
7,-17.9
8,0.0
59,0.72567
685,0.0
686,0.0
687,-4.577691828095318
750,0.0
751,0.0
752,-22.11683982136115
815,0.0
816,0.0
817,13.60806095084543
2,1,12,21, 0,10,30.00,45.00,WinterDesignDay
7,-17.9
8,0.0
59,0.72567
685,0.0
686,0.0
687,-4.690508245112548
750,0.0
751,0.0
752,-22.120301548765514
815,0.0
816,0.0
817,13.604127537036456
2,1,12,21, 0,10,45.00,60.00,WinterDesignDay
7,-17.9
8,0.0
59,0.72567
685,0.0
686,0.0
687,-4.78646696079034
750,0.0
751,0.0
752,-22.12373706642379
815,0.0
816,0.0
817,13.60021412622911
2,1,12,21, 0,11, 0.00,15.00,WinterDesignDay
7,-17.9
8,0.0
59,0.72567
685,0.0
686,0.0
687,-4.873134827552774
750,0.0
751,0.0
752,-22.127154123271946
815,0.0
816,0.0
817,13.596303218907586
2,1,12,21, 0,11,15.00,30.00,WinterDesignDay
7,-17.9
8,0.0
59,0.72567
685,0.0
686,0.0
687,-4.957030500091132
750,0.0
751,0.0
752,-22.130561953840434
815,0.0
816,0.0
817,13.592380074569425
2,1,12,21, 0,11,30.00,45.00,WinterDesignDay
7,-17.9
8,0.0
59,0.72567
685,0.0
686,0.0
687,-5.040174385056657
750,0.0
751,0.0
752,-22.133969983500656
815,0.0
816,0.0
817,13.58843513543681
2,1,12,21, 0,11,45.00,60.00,WinterDesignDay
7,-17.9
8,0.0
59,0.72567
685,0.0
686,0.0
687,-5.122171974189777
750,0.0
751,0.0
752,-22.13738708274106
815,0.0
816,0.0
817,13.584466069113004
2,1,12,21, 0,12, 0.00,15.00,WinterDesignDay
7,-17.9
8,0.0
59,0.72567
685,0.0
686,0.0
687,-5.202306213504598
750,0.0
751,0.0
752,-22.140821063245884
815,0.0
816,0.0
817,13.580482398576649
2,1,12,21, 0,12,15.00,30.00,WinterDesignDay
7,-17.9
8,0.0
59,0.72567
685,0.0
686,0.0
687,-5.280469252855291
750,0.0
751,0.0
752,-22.14427828192025
815,0.0
816,0.0
817,13.576402663380762
2,1,12,21, 0,12,30.00,45.00,WinterDesignDay
7,-17.9
8,0.0
59,0.72567
685,0.0
686,0.0
687,-5.356903387118718
750,0.0
751,0.0
752,-22.14776341319436
815,0.0
816,0.0
817,13.572171900738157
2,1,12,21, 0,12,45.00,60.00,WinterDesignDay
7,-17.9
8,0.0
59,0.72567
685,0.0
686,0.0
687,-5.431838217104505
750,0.0
751,0.0
752,-22.151279414346753
815,0.0
816,0.0
817,13.567832636486488
2,1,12,21, 0,13, 0.00,15.00,WinterDesignDay
7,-17.9
8,0.0
59,0.72567
685,0.0
686,0.0
687,-5.506197739220965
750,0.0
751,0.0
752,-22.15482763744474
815,0.0
816,0.0
817,13.563412936565673
2,1,12,21, 0,13,15.00,30.00,WinterDesignDay
7,-17.9
8,0.0
59,0.72567
685,0.0
686,0.0
687,-5.579485964089032
750,0.0
751,0.0
752,-22.158408026188408
815,0.0
816,0.0
817,13.558923525460553
2,1,12,21, 0,13,30.00,45.00,WinterDesignDay
7,-17.9
8,0.0
59,0.72567
685,0.0
686,0.0
687,-5.651144865416699
750,0.0
751,0.0
752,-22.161989272197136
815,0.0
816,0.0
817,13.554483551982678
2,1,12,21, 0,13,45.00,60.00,WinterDesignDay
7,-17.9
8,0.0
59,0.72567
685,0.0
686,0.0
687,-5.721188219332646
750,0.0
751,0.0
752,-22.165594373525554
815,0.0
816,0.0
817,13.549996824629272
2,1,12,21, 0,14, 0.00,15.00,WinterDesignDay
7,-17.9
8,0.0
59,0.72567
685,0.0
686,0.0
687,-5.788835688382493
750,0.0
751,0.0
752,-22.16923907781774
815,0.0
816,0.0
817,13.545412811085649
2,1,12,21, 0,14,15.00,30.00,WinterDesignDay
7,-17.9
8,0.0
59,0.72567
685,0.0
686,0.0
687,-5.855281534368076
750,0.0
751,0.0
752,-22.17291480674987
815,0.0
816,0.0
817,13.54077129989511
2,1,12,21, 0,14,30.00,45.00,WinterDesignDay
7,-17.9
8,0.0
59,0.72567
685,0.0
686,0.0
687,-5.921126777399272
750,0.0
751,0.0
752,-22.1766116084526
815,0.0
816,0.0
817,13.536103299161471
2,1,12,21, 0,14,45.00,60.00,WinterDesignDay
7,-17.9
8,0.0
59,0.72567
685,0.0
686,0.0
687,-5.986289913454179
750,0.0
751,0.0
752,-22.180324648659536
815,0.0
816,0.0
817,13.531418773525559
2,1,12,21, 0,15, 0.00,15.00,WinterDesignDay
7,-17.9
8,0.0
59,0.72567
685,0.0
686,0.0
687,-6.048176965285618
750,0.0
751,0.0
752,-22.184050545034964
815,0.0
816,0.0
817,13.52672399591837
2,1,12,21, 0,15,15.00,30.00,WinterDesignDay
7,-17.9
8,0.0
59,0.72567
685,0.0
686,0.0
687,-6.108476108961182
750,0.0
751,0.0
752,-22.187785285006257
815,0.0
816,0.0
817,13.522026458012858
2,1,12,21, 0,15,30.00,45.00,WinterDesignDay
7,-17.9
8,0.0
59,0.72567
685,0.0
686,0.0
687,-6.168509575664936
750,0.0
751,0.0
752,-22.191524577397136
815,0.0
816,0.0
817,13.517333271791435
2,1,12,21, 0,15,45.00,60.00,WinterDesignDay
7,-17.9
8,0.0
59,0.72567
685,0.0
686,0.0
687,-6.22835350590946
750,0.0
751,0.0
752,-22.19526434731898
815,0.0
816,0.0
817,13.512650623967742
2,1,12,21, 0,16, 0.00,15.00,WinterDesignDay
7,-17.9
8,0.0
59,0.72567
685,0.0
686,0.0
687,-6.277574689245001
750,0.0
751,0.0
752,-22.19900076072796
815,0.0
816,0.0
817,13.50798413598889
2,1,12,21, 0,16,15.00,30.00,WinterDesignDay
7,-17.9
8,0.0
59,0.72567
685,0.0
686,0.0
687,-6.322254894153737
750,0.0
751,0.0
752,-22.202730134658264
815,0.0
816,0.0
817,13.503339050124149
2,1,12,21, 0,16,30.00,45.00,WinterDesignDay
7,-17.9
8,0.0
59,0.72567
685,0.0
686,0.0
687,-6.368293431250383
750,0.0
751,0.0
752,-22.20644888182644
815,0.0
816,0.0
817,13.498720569080376
2,1,12,21, 0,16,45.00,60.00,WinterDesignDay
7,-17.9
8,0.0
59,0.72567
685,0.0
686,0.0
687,-6.416561122771859
750,0.0
751,0.0
752,-22.210153392838045
815,0.0
816,0.0
817,13.494134506500197
2,1,12,21, 0,17, 0.00,15.00,WinterDesignDay
7,-17.9
8,0.0
59,0.8849400000000001
685,0.0
686,0.0
687,-6.423772722033962
750,0.0
751,0.0
752,-22.21364303928565
815,0.0
816,0.0
817,13.490055453269129
2,1,12,21, 0,17,15.00,30.00,WinterDesignDay
7,-17.9
8,0.0
59,0.8849400000000001
685,0.0
686,0.0
687,-6.41841821259069
750,0.0
751,0.0
752,-22.217208182012463
815,0.0
816,0.0
817,13.48573080462799
2,1,12,21, 0,17,30.00,45.00,WinterDesignDay
7,-17.9
8,0.0
59,0.8849400000000001
685,0.0
686,0.0
687,-6.424098529175056
750,0.0
751,0.0
752,-22.220861923907783
815,0.0
816,0.0
817,13.481207347432669
2,1,12,21, 0,17,45.00,60.00,WinterDesignDay
7,-17.9
8,0.0
59,0.8849400000000001
685,0.0
686,0.0
687,-6.442368660155714
750,0.0
751,0.0
752,-22.224481688856855
815,0.0
816,0.0
817,13.476788375090958
2,1,12,21, 0,18, 0.00,15.00,WinterDesignDay
7,-17.9
8,0.0
59,1.6593
685,0.0
686,0.0
687,-6.38148844765123
750,0.0
751,0.0
752,-22.228040580460146
815,0.0
816,0.0
817,13.472496244988
2,1,12,21, 0,18,15.00,30.00,WinterDesignDay
7,-17.9
8,0.0
59,1.6593
685,0.0
686,0.0
687,-6.306782827272095
750,0.0
751,0.0
752,-22.23142304260281
815,0.0
816,0.0
817,13.468588772969092
2,1,12,21, 0,18,30.00,45.00,WinterDesignDay
7,-17.9
8,0.0
59,1.6593
685,0.0
686,0.0
687,-6.262818076509038
750,0.0
751,0.0
752,-22.234865990160632
815,0.0
816,0.0
817,13.464493257270512
2,1,12,21, 0,18,45.00,60.00,WinterDesignDay
7,-17.9
8,0.0
59,1.6593
685,0.0
686,0.0
687,-6.2459959088527395
750,0.0
751,0.0
752,-22.238334682344778
815,0.0
816,0.0
817,13.460363252291957
2,1,12,21, 0,19, 0.00,15.00,WinterDesignDay
7,-17.9
8,0.0
59,2.69079
685,0.0
686,0.0
687,-6.1478097141584485
750,0.0
751,0.0
752,-22.241771594266837
815,0.0
816,0.0
817,13.456312334314935
2,1,12,21, 0,19,15.00,30.00,WinterDesignDay
7,-17.9
8,0.0
59,2.69079
685,0.0
686,0.0
687,-6.042097723685406
750,0.0
751,0.0
752,-22.2451067112975
815,0.0
816,0.0
817,13.452491623608074
2,1,12,21, 0,19,30.00,45.00,WinterDesignDay
7,-17.9
8,0.0
59,2.69079
685,0.0
686,0.0
687,-5.973855274513782
750,0.0
751,0.0
752,-22.248313746196043
815,0.0
816,0.0
817,13.448944825750916
2,1,12,21, 0,19,45.00,60.00,WinterDesignDay
7,-17.9
8,0.0
59,2.69079
685,0.0
686,0.0
687,-5.935293971607013
750,0.0
751,0.0
752,-22.25139881806679
815,0.0
816,0.0
817,13.445639914410908
2,1,12,21, 0,20, 0.00,15.00,WinterDesignDay
7,-17.9
8,0.0
59,2.69079
685,0.0
686,0.0
687,-5.899970485568691
750,0.0
751,0.0
752,-22.254360244712874
815,0.0
816,0.0
817,13.442570021397234
2,1,12,21, 0,20,15.00,30.00,WinterDesignDay
7,-17.9
8,0.0
59,2.69079
685,0.0
686,0.0
687,-5.863428571585364
750,0.0
751,0.0
752,-22.25718663238863
815,0.0
816,0.0
817,13.439747864732349
2,1,12,21, 0,20,30.00,45.00,WinterDesignDay
7,-17.9
8,0.0
59,2.69079
685,0.0
686,0.0
687,-5.828404588238065
750,0.0
751,0.0
752,-22.259866021135917
815,0.0
816,0.0
817,13.437184848193018
2,1,12,21, 0,20,45.00,60.00,WinterDesignDay
7,-17.9
8,0.0
59,2.69079
685,0.0
686,0.0
687,-5.796621982948584
750,0.0
751,0.0
752,-22.262345648657494
815,0.0
816,0.0
817,13.43496590091366
2,1,12,21, 0,21, 0.00,15.00,WinterDesignDay
7,-17.9
8,0.0
59,2.69079
685,0.0
686,0.0
687,-5.766343414018766
750,0.0
751,0.0
752,-22.26465611540984
815,0.0
816,0.0
817,13.433005067440392
2,1,12,21, 0,21,15.00,30.00,WinterDesignDay
7,-17.9
8,0.0
59,2.69079
685,0.0
686,0.0
687,-5.738285583536442
750,0.0
751,0.0
752,-22.266820223541313
815,0.0
816,0.0
817,13.431256223327557
2,1,12,21, 0,21,30.00,45.00,WinterDesignDay
7,-17.9
8,0.0
59,2.69079
685,0.0
686,0.0
687,-5.712311143556233
750,0.0
751,0.0
752,-22.268826051732614
815,0.0
816,0.0
817,13.429737661221987
2,1,12,21, 0,21,45.00,60.00,WinterDesignDay
7,-17.9
8,0.0
59,2.69079
685,0.0
686,0.0
687,-5.687804815027586
750,0.0
751,0.0
752,-22.270661969613897
815,0.0
816,0.0
817,13.428455309439004
2,1,12,21, 0,22, 0.00,15.00,WinterDesignDay
7,-17.9
8,0.0
59,3.0
685,0.0
686,0.0
687,-5.6627177236787345
750,0.0
751,0.0
752,-22.272267066209807
815,0.0
816,0.0
817,13.427460662962654
2,1,12,21, 0,22,15.00,30.00,WinterDesignDay
7,-17.9
8,0.0
59,3.0
685,0.0
686,0.0
687,-5.644972043253602
750,0.0
751,0.0
752,-22.273697796002498
815,0.0
816,0.0
817,13.426666058862294
2,1,12,21, 0,22,30.00,45.00,WinterDesignDay
7,-17.9
8,0.0
59,3.0
685,0.0
686,0.0
687,-5.633232686741107
750,0.0
751,0.0
752,-22.27500058348094
815,0.0
816,0.0
817,13.42601963780897
2,1,12,21, 0,22,45.00,60.00,WinterDesignDay
7,-17.9
8,0.0
59,3.0
685,0.0
686,0.0
687,-5.6233051031374535
750,0.0
751,0.0
752,-22.27616972870659
815,0.0
816,0.0
817,13.425527543664334
2,1,12,21, 0,23, 0.00,15.00,WinterDesignDay
7,-17.9
8,0.0
59,3.0
685,0.0
686,0.0
687,-5.649548940048045
750,0.0
751,0.0
752,-22.277255291286913
815,0.0
816,0.0
817,13.425158507650382
2,1,12,21, 0,23,15.00,30.00,WinterDesignDay
7,-17.9
8,0.0
59,3.0
685,0.0
686,0.0
687,-5.6876302922834965
750,0.0
751,0.0
752,-22.278191977934615
815,0.0
816,0.0
817,13.424942717763107
2,1,12,21, 0,23,30.00,45.00,WinterDesignDay
7,-17.9
8,0.0
59,3.0
685,0.0
686,0.0
687,-5.716990320895798
750,0.0
751,0.0
752,-22.278968230456726
815,0.0
816,0.0
817,13.424862991672786
2,1,12,21, 0,23,45.00,60.00,WinterDesignDay
7,-17.9
8,0.0
59,3.0
685,0.0
686,0.0
687,-5.736123093620094
750,0.0
751,0.0
752,-22.27961963704148
815,0.0
816,0.0
817,13.42487833372734
2,1,12,21, 0,24, 0.00,15.00,WinterDesignDay
7,-17.9
8,0.0
59,3.0
685,0.0
686,0.0
687,-5.780760454827248
750,0.0
751,0.0
752,-22.280178951504727
815,0.0
816,0.0
817,13.42496411300447
2,1,12,21, 0,24,15.00,30.00,WinterDesignDay
7,-17.9
8,0.0
59,3.0
685,0.0
686,0.0
687,-5.835373228120073
750,0.0
751,0.0
752,-22.280648873862923
815,0.0
816,0.0
817,13.425092062267057
2,1,12,21, 0,24,30.00,45.00,WinterDesignDay
7,-17.9
8,0.0
59,3.0
685,0.0
686,0.0
687,-5.882739810039118
750,0.0
751,0.0
752,-22.281036634461177
815,0.0
816,0.0
817,13.425233675168386
2,1,12,21, 0,24,45.00,60.00,WinterDesignDay
7,-17.9
8,0.0
59,3.0
685,0.0
686,0.0
687,-5.921400670267023
750,0.0
751,0.0
752,-22.28136122196437
815,0.0
816,0.0
817,13.425363210279272
1,DENVER-AURORA-BUCKLEY.AFB_CO_USA ANN CLG .4% CONDNS DB=>MWB,  39.72,-104.75,  -7.00,1726.00
2,1, 7,21, 0, 1, 0.00,15.00,SummerDesignDay
7,21.541999999999998
8,0.0
59,3.0
685,0.0
686,0.0
687,42.610599916266146
750,0.0
751,0.0
752,19.72905978390807
815,0.0
816,0.0
817,20.337640204400792
2,1, 7,21, 0, 1,15.00,30.00,SummerDesignDay
7,21.32
8,0.0
59,3.0
685,0.0
686,5551.442940602707
687,37.99009156254051
750,0.0
751,0.0
752,19.454016491082708
815,0.0
816,0.0
817,20.301551283213946
2,1, 7,21, 0, 1,30.00,45.00,SummerDesignDay
7,21.098
8,0.0
59,3.0
685,0.0
686,5257.763595374526
687,36.87512588740514
750,0.0
751,0.0
752,19.176310118305196
815,0.0
816,0.0
817,20.263255490572202
2,1, 7,21, 0, 1,45.00,60.00,SummerDesignDay
7,20.875999999999998
8,0.0
59,3.0
685,0.0
686,4997.999716473275
687,35.79837614407906
750,0.0
751,0.0
752,18.90673815507843
815,0.0
816,0.0
817,20.225664035089924
2,1, 7,21, 0, 2, 0.00,15.00,SummerDesignDay
7,20.727999999999998
8,0.0
59,3.0
685,0.0
686,4748.2408003790115
687,34.79934369310513
750,0.0
751,0.0
752,18.61368316568526
815,0.0
816,0.0
817,20.177256830830217
2,1, 7,21, 0, 2,15.00,30.00,SummerDesignDay
7,20.58
8,0.0
59,3.0
685,0.0
686,4624.482218876996
687,34.261954404242815
750,0.0
751,0.0
752,18.396645326446905
815,0.0
816,0.0
817,20.14889145214825
2,1, 7,21, 0, 2,30.00,45.00,SummerDesignDay
7,20.431999999999995
8,0.0
59,3.0
685,0.0
686,4439.630929510209
687,33.49812503282115
750,0.0
751,0.0
752,18.135895083404655
815,0.0
816,0.0
817,20.103532418023335
2,1, 7,21, 0, 2,45.00,60.00,SummerDesignDay
7,20.284
8,0.0
59,3.0
685,0.0
686,4299.220560615095
687,32.904356406601
750,0.0
751,0.0
752,17.919150151660414
815,0.0
816,0.0
817,20.066947012914113
2,1, 7,21, 0, 3, 0.00,15.00,SummerDesignDay
7,20.173
8,0.0
59,3.0
685,0.0
686,4206.281105054972
687,32.48577871108546
750,0.0
751,0.0
752,17.751652856568626
815,0.0
816,0.0
817,20.04198827657424
2,1, 7,21, 0, 3,15.00,30.00,SummerDesignDay
7,20.061999999999998
8,0.0
59,3.0
685,0.0
686,4042.8235608141586
687,31.79602220919208
750,0.0
751,0.0
752,17.517324922694115
815,0.0
816,0.0
817,19.994666836329156
2,1, 7,21, 0, 3,30.00,45.00,SummerDesignDay
7,19.951
8,0.0
59,3.0
685,0.0
686,3927.9406938039238
687,31.303172607597176
750,0.0
751,0.0
752,17.34517706078876
815,0.0
816,0.0
817,19.956680713589652
2,1, 7,21, 0, 3,45.00,60.00,SummerDesignDay
7,19.839999999999996
8,0.0
59,3.0
685,0.0
686,3818.3668894984194
687,30.822557001970345
750,0.0
751,0.0
752,17.1735253548894
815,0.0
816,0.0
817,19.917676155464477
2,1, 7,21, 0, 4, 0.00,15.00,SummerDesignDay
7,19.729
8,0.0
59,3.0
685,0.0
686,3711.7392294532165
687,30.355269797793994
750,0.0
751,0.0
752,17.009841608745404
815,0.0
816,0.0
817,19.876520735314564
2,1, 7,21, 0, 4,15.00,30.00,SummerDesignDay
7,19.618
8,0.0
59,3.0
685,0.0
686,3611.0033884841223
687,29.91148147788675
750,0.0
751,0.0
752,16.852420410855245
815,0.0
816,0.0
817,19.83429056656731
2,1, 7,21, 0, 4,30.00,45.00,SummerDesignDay
7,19.506999999999998
8,0.0
59,3.0
685,0.0
686,3514.6833775963064
687,29.485147187272887
750,0.0
751,0.0
752,16.699077741391495
815,0.0
816,0.0
817,19.79104560922913
2,1, 7,21, 0, 4,45.00,60.00,SummerDesignDay
7,19.396
8,0.0
59,3.0
685,0.0
686,3422.4298013782427
687,29.07521494727603
750,0.0
751,0.0
752,16.549472390900377
815,0.0
816,0.0
817,19.746910664023304
2,1, 7,21, 0, 5, 0.00,15.00,SummerDesignDay
7,19.321999999999996
8,0.0
59,3.0
685,0.0
686,3335.56304793701
687,28.687821478736225
750,0.0
751,0.0
752,16.404640227283224
815,0.0
816,0.0
817,19.702095009457707
2,1, 7,21, 0, 5,15.00,30.00,SummerDesignDay
7,19.247999999999998
8,0.0
59,3.0
685,0.0
686,3252.2988312702464
687,28.31509568818643
750,0.0
751,0.0
752,16.26703115384275
815,0.0
816,0.0
817,19.656804937894155
2,1, 7,21, 0, 5,30.00,45.00,SummerDesignDay
7,19.174
8,0.0
59,3.0
685,0.0
686,3171.6679546465407
687,27.95297557366495
750,0.0
751,0.0
752,16.136773847847852
815,0.0
816,0.0
817,19.611259235345727
2,1, 7,21, 0, 5,45.00,60.00,SummerDesignDay
7,19.099999999999998
8,20.580883776576158
59,3.0
685,0.0
686,3101.2272585832898
687,27.635984639610577
750,0.0
751,0.0
752,16.0622918793413
815,0.0
816,0.0
817,19.566054624471924
2,1, 7,21, 0, 6, 0.00,15.00,SummerDesignDay
7,19.174
8,97.02856558027213
59,3.0
685,0.0
686,3055.2941058499346
687,27.42340129448117
750,0.0
751,0.0
752,16.134331551996894
815,0.0
816,0.0
817,19.52404329252407
2,1, 7,21, 0, 6,15.00,30.00,SummerDesignDay
7,19.247999999999998
8,193.69731839013423
59,3.0
685,0.0
686,3029.3893662280166
687,27.30781211527743
750,0.0
751,0.0
752,16.416928190069655
815,0.0
816,0.0
817,19.490646377582646
2,1, 7,21, 0, 6,30.00,45.00,SummerDesignDay
7,19.321999999999996
8,284.7407995809689
59,3.0
685,0.0
686,3020.548702062415
687,27.271411174860596
750,0.0
751,0.0
752,16.83819013035515
815,0.0
816,0.0
817,19.48180396863481
2,1, 7,21, 0, 6,45.00,60.00,SummerDesignDay
7,19.396
8,364.0007327280167
59,3.0
685,0.0
686,3007.9144632229863
687,27.214345799493966
750,0.0
751,0.0
752,17.567074968224354
815,0.0
816,0.0
817,19.47552499841446
2,1, 7,21, 0, 7, 0.00,15.00,SummerDesignDay
7,19.654999999999998
8,431.64761188735173
59,3.0
685,0.0
686,3002.867949223952
687,27.192313305818388
750,0.0
751,0.0
752,18.57601981305924
815,0.0
816,0.0
817,19.486610550919075
2,1, 7,21, 0, 7,15.00,30.00,SummerDesignDay
7,19.913999999999994
8,489.2947140885793
59,3.0
685,0.0
686,2999.3472013914625
687,27.176535306107297
750,0.0
751,0.0
752,19.852304938764334
815,0.0
816,0.0
817,19.515714811293115
2,1, 7,21, 0, 7,30.00,45.00,SummerDesignDay
7,20.173
8,538.6372176020046
59,3.0
685,0.0
686,3000.24767783633
687,27.180852928044462
750,0.0
751,0.0
752,21.349188123930126
815,0.0
816,0.0
817,19.560177237404627
2,1, 7,21, 0, 7,45.00,60.00,SummerDesignDay
7,20.431999999999995
8,581.1279420356631
59,3.0
685,0.0
686,3001.6285123392436
687,27.1871219600582
750,0.0
751,0.0
752,22.992786345827824
815,0.0
816,0.0
817,19.617179909116654
2,1, 7,21, 0, 8, 0.00,15.00,SummerDesignDay
7,21.061
8,617.9419585778161
59,2.6493
685,0.0
686,3003.447548752689
687,27.195320852707187
750,0.0
751,0.0
752,25.158561523002792
815,0.0
816,0.0
817,19.698521728269732
2,1, 7,21, 0, 8,15.00,30.00,SummerDesignDay
7,21.689999999999998
8,650.0139261609293
59,2.6493
685,0.0
686,3006.683083710733
687,27.210069537705404
750,0.0
751,0.0
752,26.800267721777082
815,0.0
816,0.0
817,19.75950881560461
2,1, 7,21, 0, 8,30.00,45.00,SummerDesignDay
7,22.319
8,678.0861194854122
59,2.6493
685,0.0
686,3011.2643860621415
687,27.23073518462584
750,0.0
751,0.0
752,29.48234572976829
815,0.0
816,0.0
817,19.845960935574784
2,1, 7,21, 0, 8,45.00,60.00,SummerDesignDay
7,22.948
8,702.750705709785
59,2.6493
685,0.0
686,3015.617146744516
687,27.2505403058647
750,0.0
751,0.0
752,31.37200180125484
815,0.0
816,0.0
817,19.908952821455422
2,1, 7,21, 0, 9, 0.00,15.00,SummerDesignDay
7,23.651
8,724.4833574474131
59,1.22583
685,0.0
686,3007.7838222195032
687,27.21466977446402
750,0.0
751,0.0
752,33.517172122208386
815,0.0
816,0.0
817,19.980321530985062
2,1, 7,21, 0, 9,15.00,30.00,SummerDesignDay
7,24.354
8,743.6690422847075
59,1.22583
685,0.0
686,3008.3415362892238
687,27.2174808260635
750,0.0
751,0.0
752,35.77140742167119
815,0.0
816,0.0
817,20.055362381335623
2,1, 7,21, 0, 9,30.00,45.00,SummerDesignDay
7,25.056999999999995
8,760.6215861842238
59,1.22583
685,0.0
686,3010.642412031279
687,27.227947294204526
750,0.0
751,0.0
752,38.13694055381418
815,0.0
816,0.0
817,20.13391685679033
2,1, 7,21, 0, 9,45.00,60.00,SummerDesignDay
7,25.759999999999998
8,775.5985010883826
59,1.22583
685,0.0
686,3015.762600050619
687,27.2511008030328
750,0.0
751,0.0
752,41.13369480126689
815,0.0
816,0.0
817,20.237743112420244
2,1, 7,21, 0,10, 0.00,15.00,SummerDesignDay
7,26.388999999999996
8,788.8122675417723
59,0.72567
685,0.0
686,3014.8970273401937
687,27.247119743755913
750,0.0
751,0.0
752,43.094781798188635
815,0.0
816,0.0
817,20.310597871822115
2,1, 7,21, 0,10,15.00,30.00,SummerDesignDay
7,27.017999999999997
8,800.4389717884208
59,0.72567
685,0.0
686,3016.9456201695643
687,27.25648785653856
750,0.0
751,0.0
752,45.22329425189584
815,0.0
816,0.0
817,20.3906069934741
2,1, 7,21, 0,10,30.00,45.00,SummerDesignDay
7,27.647
8,810.6249618362577
59,0.72567
685,0.0
686,3019.2804136901173
687,27.266996482950322
750,0.0
751,0.0
752,47.75067583031567
815,0.0
816,0.0
817,20.48677562165818
2,1, 7,21, 0,10,45.00,60.00,SummerDesignDay
7,28.275999999999996
8,819.4920097888349
59,0.72567
685,0.0
686,3020.8124177863056
687,27.273924628111985
750,0.0
751,0.0
752,49.78722262818876
815,0.0
816,0.0
817,20.565331113968227
2,1, 7,21, 0,11, 0.00,15.00,SummerDesignDay
7,28.830999999999996
8,827.1413376742952
59,0.72567
685,0.0
686,0.0
687,28.95622438643041
750,0.0
751,0.0
752,51.423772764589245
815,0.0
816,0.0
817,20.631328466469025
2,1, 7,21, 0,11,15.00,30.00,SummerDesignDay
7,29.386
8,833.656769390796
59,0.72567
685,0.0
686,0.0
687,30.36709261971245
750,0.0
751,0.0
752,53.459904726156296
815,0.0
816,0.0
817,20.71298399763145
2,1, 7,21, 0,11,30.00,45.00,SummerDesignDay
7,29.941
8,839.1072025158636
59,0.72567
685,0.0
686,0.0
687,30.77539802980255
750,0.0
751,0.0
752,54.87535703850007
815,0.0
816,0.0
817,20.773159247008493
2,1, 7,21, 0,11,45.00,60.00,SummerDesignDay
7,30.496
8,843.548543157713
59,0.72567
685,0.0
686,0.0
687,31.446663066120323
750,0.0
751,0.0
752,56.644669072009606
815,0.0
816,0.0
817,20.846224358091504
2,1, 7,21, 0,12, 0.00,15.00,SummerDesignDay
7,30.866
8,847.0252092387462
59,0.72567
685,0.0
686,0.0
687,31.696296877531182
750,0.0
751,0.0
752,57.82043569548139
815,0.0
816,0.0
817,20.898263381853553
2,1, 7,21, 0,12,15.00,30.00,SummerDesignDay
7,31.235999999999997
8,849.5712786816416
59,0.72567
685,0.0
686,0.0
687,32.16269847858038
750,0.0
751,0.0
752,59.27811682540109
815,0.0
816,0.0
817,20.960231421070763
2,1, 7,21, 0,12,30.00,45.00,SummerDesignDay
7,31.605999999999998
8,851.2113368141144
59,0.72567
685,0.0
686,0.0
687,32.37284279599915
750,0.0
751,0.0
752,60.17226353387975
815,0.0
816,0.0
817,21.0018469884314
2,1, 7,21, 0,12,45.00,60.00,SummerDesignDay
7,31.976
8,851.9610621511682
59,0.72567
685,0.0
686,3594.7186739169883
687,29.97036240375243
750,0.0
751,0.0
752,61.11482159356126
815,0.0
816,0.0
817,21.044347936570727
2,1, 7,21, 0,13, 0.00,15.00,SummerDesignDay
7,32.272
8,851.8275825976592
59,0.72567
685,0.0
686,0.0
687,31.37475467360591
750,0.0
751,0.0
752,61.97024305678811
815,0.0
816,0.0
817,21.0870604363628
2,1, 7,21, 0,13,15.00,30.00,SummerDesignDay
7,32.568
8,850.8096308636893
59,0.72567
685,0.0
686,0.0
687,32.03395759797745
750,0.0
751,0.0
752,62.664028310573016
815,0.0
816,0.0
817,21.12301631188396
2,1, 7,21, 0,13,30.00,45.00,SummerDesignDay
7,32.864
8,848.8975171958816
59,0.72567